data_43711-ICSD

_audit_creation_date               103-03-14
_audit_creation_method             'generated by RETRIEVE 2.0'

_database_code_ICSD                43711

_chemical_name_systematic          'Scandium'
_chemical_formula_structural       'Sc'
_chemical_formula_sum              'Sc'

_publ_section_title                
;
Preparation and properties of scandium metal
;
loop_
_publ_author_name                  
  'Spedding, F H'
  'Daane, A H'
  'Wakefield, G'
  'Dennison, D H'
_journal_name_full                 
;
Transactions of the Metallurgical Society of Aime
;
_journal_coden_ASTM                TMSAAB
_journal_volume                    218
_journal_year                      1960
_journal_page_first                608
_journal_page_last                 611

_cell_length_a                     3.308(1)
_cell_length_b                     3.308
_cell_length_c                     5.267(3)
_cell_angle_alpha                  90
_cell_angle_beta                   90
_cell_angle_gamma                  120
_cell_volume                       49.9
_cell_formula_units_Z              2

_symmetry_space_group_name_H-M     'P 63/m m c'
_symmetry_Int_Tables_number        194
_symmetry_cell_setting             hexagonal

loop_
_symmetry_equiv_pos_as_xyz         
  'x,y,z'
  '-y,x-y,z'
  'y-x,-x,z'
  '-y,-x,z'
  'y-x,y,z'
  'x,x-y,z'
  '-x,-y,-z'
  'y,y-x,-z'
  'x-y,x,-z'
  'y,x,-z'
  'x-y,-y,-z'
  '-x,y-x,-z'
  '-x,-y,1/2+z'
  'y,y-x,1/2+z'
  'x-y,x,1/2+z'
  'y,x,1/2+z'
  'x-y,-y,1/2+z'
  '-x,y-x,1/2+z'
  'x,y,1/2-z'
  '-y,x-y,1/2-z'
  'y-x,-x,1/2-z'
  '-y,-x,1/2-z'
  'y-x,y,1/2-z'
  'x,x-y,1/2-z'

loop_
_atom_type_symbol
_atom_type_oxidation_number
  Sc0    0.000

loop_
_atom_site_label
_atom_site_type_symbol
_atom_site_symmetry_multiplicity
_atom_site_Wyckoff_symbol
_atom_site_fract_x
_atom_site_fract_y
_atom_site_fract_z
_atom_site_occupancy
_atom_site_attached_hydrogens
_atom_site_calc_flag
  Sc1   Sc0    2 c 0.3333 0.6667 0.25 1.  0 d



