data_1093-ICSD

_audit_creation_date               103-03-12
_audit_creation_method             'generated by RETRIEVE 2.0'

_database_code_ICSD                1093

_chemical_name_systematic          'URANIUM(VI) OXIDE - $-gamma'
_chemical_formula_structural       'U O3'
_chemical_formula_sum              'O3 U'

_publ_section_title                
;
Neutron powder profile studies of the $-gamma uranium trioxide phases
;
loop_
_publ_author_name                  
  'Loopstra, B O'
  'Taylor, J C'
  'Waugh, A B'
_journal_name_full                 'Journal of Solid State Chemistry'
_journal_coden_ASTM                JSSCBI
_journal_volume                    20
_journal_year                      1977
_journal_page_first                9
_journal_page_last                 19

_cell_length_a                     6.9013(5)
_cell_length_b                     6.9013(5)
_cell_length_c                     19.9754(18)
_cell_angle_alpha                  90
_cell_angle_beta                   90
_cell_angle_gamma                  90
_cell_volume                       951.4
_cell_formula_units_Z              16

_exptl_crystal_density_meas        7.99

_symmetry_space_group_name_H-M     'I 41/a m d '
_symmetry_Int_Tables_number        141
_symmetry_cell_setting             tetragonal

loop_
_symmetry_equiv_pos_as_xyz         
  'x,y,z'
  'x,1/2-y,z'
  '1/4+y,1/4+x,3/4+z'
  '1/4+y,1/4-x,3/4+z'
  '-x,y,z'
  '-x,1/2-y,z'
  '3/4-y,1/4+x,3/4+z'
  '3/4-y,1/4-x,3/4+z'
  '-x,-y,-z'
  '-x,1/2+y,-z'
  '3/4-y,3/4-x,1/4-z'
  '3/4-y,3/4+x,1/4-z'
  'x,-y,-z'
  'x,1/2+y,-z'
  '1/4+y,3/4-x,1/4-z'
  '1/4+y,3/4+x,1/4-z'
  '1/2+x,1/2+y,1/2+z'
  '1/2+x,-y,1/2+z'
  '3/4+y,3/4+x,1/4+z'
  '3/4+y,3/4-x,1/4+z'
  '1/2-x,1/2+y,1/2+z'
  '1/2-x,-y,1/2+z'
  '1/4-y,3/4+x,1/4+z'
  '1/4-y,3/4-x,1/4+z'
  '1/2-x,1/2-y,1/2-z'
  '1/2-x,y,1/2-z'
  '1/4-y,1/4-x,3/4-z'
  '1/4-y,1/4+x,3/4-z'
  '1/2+x,1/2-y,1/2-z'
  '1/2+x,y,1/2-z'
  '3/4+y,1/4-x,3/4-z'
  '3/4+y,1/4+x,3/4-z'

loop_
_atom_type_symbol
_atom_type_oxidation_number
  U6+    6.000
  O2-   -2.000

loop_
_atom_site_label
_atom_site_type_symbol
_atom_site_symmetry_multiplicity
_atom_site_Wyckoff_symbol
_atom_site_fract_x
_atom_site_fract_y
_atom_site_fract_z
_atom_site_occupancy
_atom_site_attached_hydrogens
_atom_site_calc_flag
  U1    U6+    8 e 0. 0.25 0.0618(3) 1.  0 d
  U2    U6+    8 d 0. 0. 0.5 1.  0 d
  O1    O2-   16 h 0. 0.9476(7) 0.4073(3) 1.  0 d
  O2    O2-   16 h 0. 0.0496(7) 0.2645(3) 1.  0 d
  O3    O2-   16 h 0. 0.5100(8) 0.0660(3) 1.  0 d

_refine_ls_R_factor_all            0.063



