data_75479-ICSD

_audit_creation_date               103-03-14
_audit_creation_method             'generated by RETRIEVE 2.0'

_database_code_ICSD                75479

_chemical_name_systematic          'Aluminium oxide'
_chemical_formula_structural       'Al2 O3'
_chemical_formula_sum              'Al2 O3'

_publ_section_title                
;
Neutron diffraction measurements of the residual stresses in Al2 O3 - 
Zr O2 (Ce O2) ceramic composites
;
loop_
_publ_author_name                  
  'Wang, X - L'
  'Hubbard, C R'
  'Alexander, K B'
  'Becher, P F'
_journal_name_full                 'Journal of the American Ceramic Society'
_journal_coden_ASTM                JACTAW
_journal_volume                    77
_journal_year                      1994
_journal_page_first                1569
_journal_page_last                 1575
_journal_issue                     6

_cell_length_a                     4.7554(3)
_cell_length_b                     4.7554(3)
_cell_length_c                     12.9910(6)
_cell_angle_alpha                  90
_cell_angle_beta                   90
_cell_angle_gamma                  120
_cell_volume                       254.4
_cell_formula_units_Z              6

_symmetry_space_group_name_H-M     'R -3 c H'
_symmetry_Int_Tables_number        167
_symmetry_cell_setting             trigonal

loop_
_atom_type_symbol
_atom_type_oxidation_number
  Al3+   3.000
  O2-   -2.000

loop_
_atom_site_label
_atom_site_type_symbol
_atom_site_symmetry_multiplicity
_atom_site_Wyckoff_symbol
_atom_site_fract_x
_atom_site_fract_y
_atom_site_fract_z
_atom_site_occupancy
_atom_site_attached_hydrogens
_atom_site_calc_flag
  Al1   Al3+  12 c 0. 0. 0.3520(3) 1.  0 d
  O1    O2-   18 e 0.3063(4) 0. 0.25 1.  0 d

_refine_ls_R_factor_all            0.07



