data_60627-ICSD

_audit_creation_date               103-03-12
_audit_creation_method             'generated by RETRIEVE 2.0'

_database_code_ICSD                60627

_chemical_name_systematic          'Tantalum dioxide'
_chemical_formula_structural       'Ta O2'
_chemical_formula_sum              'O2 Ta'

_publ_section_title                
;
Electrographic investigation of tantalum dioxide in thin layers
;
loop_
_publ_author_name                  
  'Khitrova, V I'
  'Klechkovskaya, V V'
  'Pinsker, Z G'
_journal_name_full                 'Kristallografiya'
_journal_coden_ASTM                KRISAJ
_journal_volume                    12
_journal_year                      1967
_journal_page_first                1044
_journal_page_last                 1050

_cell_length_a                     13.32
_cell_length_b                     13.32
_cell_length_c                     6.12
_cell_angle_alpha                  90
_cell_angle_beta                   90
_cell_angle_gamma                  90
_cell_volume                       1085.8
_cell_formula_units_Z              32

_symmetry_space_group_name_H-M     'I 41/a Z'
_symmetry_Int_Tables_number        88
_symmetry_cell_setting             tetragonal

loop_
_symmetry_equiv_pos_as_xyz         
  'x,y,z'
  '-x,1/2-y,z'
  '3/4-y,1/4+x,1/4+z'
  '1/4+y,1/4-x,1/4+z'
  '-x,-y,-z'
  'x,1/2+y,-z'
  '1/4+y,3/4-x,3/4-z'
  '3/4-y,3/4+x,3/4-z'
  '1/2+x,1/2+y,1/2+z'
  '1/2-x,-y,1/2+z'
  '1/4-y,3/4+x,3/4+z'
  '3/4+y,3/4-x,3/4+z'
  '1/2-x,1/2-y,1/2-z'
  '1/2+x,y,1/2-z'
  '3/4+y,1/4-x,1/4-z'
  '1/4-y,1/4+x,1/4-z'

loop_
_atom_type_symbol
_atom_type_oxidation_number
  Ta4+   4.000
  O2-   -2.000

loop_
_atom_site_label
_atom_site_type_symbol
_atom_site_symmetry_multiplicity
_atom_site_Wyckoff_symbol
_atom_site_fract_x
_atom_site_fract_y
_atom_site_fract_z
_atom_site_occupancy
_atom_site_attached_hydrogens
_atom_site_calc_flag
  Ta1   Ta4+  16 f 0.124 0.125 0.499(1) 1.  0 d
  Ta2   Ta4+  16 f 0.126 0.125 0.001(1) 1.  0 d
  O1    O2-   16 f 0.975 0.125 0. 1.  0 d
  O2    O2-   16 f 0.975 0.125 0.5 1.  0 d
  O3    O2-   16 f 0.275 0.125 0. 1.  0 d
  O4    O2-   16 f 0.274 0.125 0.5 1.  0 d

_refine_ls_R_factor_all            0.18



